ITEM: TIMESTEP
50000
ITEM: NUMBER OF ATOMS
300
ITEM: BOX BOUNDS pp pp pp
0.0000000000000000e+00 1.6811056000000001e+01
0.0000000000000000e+00 1.6811056000000001e+01
0.0000000000000000e+00 1.6811056000000001e+01
ITEM: ATOMS id type q x y z vx vy vz 
4 1 -1.2 6.0346 6.46046 7.69036 2.873e-10 -2.28637e-10 -2.45388e-10 
7 2 2.4 6.10107 2.41252 2.1669 -8.57617e-11 3.71752e-10 3.23564e-10 
11 1 -1.2 2.77539 6.36293 3.10585 1.11371e-10 -1.33755e-10 -1.90223e-11 
36 1 -1.2 4.68925 6.16701 1.10938 2.29351e-11 2.07008e-11 -4.5554e-11 
53 1 -1.2 5.98264 5.11824 5.30109 2.89151e-10 3.46789e-11 -1.29704e-10 
84 2 2.4 3.22729 5.56011 1.70039 8.54984e-11 -9.07769e-11 -2.72113e-10 
92 1 -1.2 7.20897 3.42661 1.56564 -8.28453e-11 6.43481e-11 2.34834e-10 
95 1 -1.2 1.79161 0.886717 0.701979 -8.21518e-11 1.08455e-11 -4.5203e-11 
98 1 -1.2 3.10121 4.05121 1.88365 6.43003e-11 -1.19879e-10 -2.46014e-11 
100 2 2.4 6.31123 3.64296 4.88569 3.36213e-11 -4.91184e-11 7.45337e-12 
104 2 2.4 2.46774 0.95714 6.70001 -9.8564e-11 1.33089e-10 -1.37398e-10 
161 1 -1.2 6.56737 7.95584 0.333756 2.53232e-11 4.11744e-10 -9.34998e-11 
170 1 -1.2 2.74654 0.504866 5.17467 6.37157e-11 -7.8477e-12 2.47407e-11 
177 2 2.4 5.19521 6.1268 6.29361 1.78938e-10 1.63146e-10 3.60273e-10 
64 1 -1.2 7.39187 5.52123 0.21682 9.83824e-11 -1.06333e-10 -7.1239e-11 
189 2 2.4 5.98674 6.43457 0.163167 4.96856e-10 -6.40578e-10 -5.20899e-10 
196 1 -1.2 5.29471 1.33434 1.28844 -2.10026e-10 2.27463e-10 9.64657e-11 
219 2 2.4 1.82513 7.13006 4.22517 9.32506e-11 -4.78556e-11 -9.19282e-11 
221 1 -1.2 3.8003 1.69098 7.22907 -6.03774e-11 -2.70134e-11 1.8973e-11 
237 1 -1.2 6.01531 2.77047 6.28114 -1.07352e-10 4.74075e-11 -2.12057e-11 
242 1 -1.2 1.07652 1.82127 6.75622 4.87918e-12 -4.1953e-11 -2.47913e-11 
253 1 -1.2 5.06206 7.61495 5.64019 -2.00365e-10 1.46623e-10 9.81907e-11 
223 1 -1.2 2.64599 8.16745 5.1418 4.45455e-10 -3.13562e-10 1.04542e-11 
277 2 2.4 5.2804 2.14629 7.56542 -4.77875e-10 3.13548e-10 -3.211e-10 
287 1 -1.2 3.83515 5.53072 6.6458 3.57075e-10 1.83989e-10 -3.32961e-10 
289 1 -1.2 0.856861 6.28069 5.2418 6.83703e-11 -1.16127e-11 6.01603e-11 
291 1 -1.2 5.56523 2.97995 3.57882 9.24206e-11 -1.58636e-11 -7.64606e-11 
90 1 -1.2 2.05887 5.84086 0.426691 2.35198e-11 -1.73704e-10 -1.19775e-10 
194 2 2.4 8.01348 4.06271 0.309334 -4.63294e-10 1.1003e-09 -6.27159e-10 
40 1 -1.2 7.43916 1.43566 2.78972 -9.9137e-11 -9.12002e-12 6.33924e-11 
299 1 -1.2 6.21988 0.847214 8.13185 1.30577e-10 1.11584e-10 1.44011e-10 
156 1 -1.2 7.85126 3.48453 4.31742 6.22678e-11 -1.84571e-10 1.32821e-10 
54 1 -1.2 1.29815 0.235816 3.068 -7.99868e-11 -2.84158e-12 3.26351e-11 
183 2 2.4 0.593563 0.954464 1.8253 -5.46839e-10 -4.19898e-10 -3.83056e-10 
231 1 -1.2 0.322063 5.25923 7.7539 -5.19284e-11 -1.64274e-10 -2.93029e-10 
269 1 -1.2 0.724063 7.83837 3.27496 1.78098e-11 -7.64104e-11 -3.82606e-12 
8 2 2.4 16.7339 5.43034 6.15159 9.49448e-10 -5.05499e-10 -7.66484e-10 
172 1 -1.2 11.9472 2.2781 0.601393 4.39285e-10 1.7082e-10 -1.29801e-10 
63 1 -1.2 16.8146 2.53075 2.05023 2.46649e-10 1.07961e-10 5.77345e-11 
239 1 -1.2 13.6323 1.16511 6.96457 3.76523e-11 1.05322e-10 1.94947e-10 
275 2 2.4 13.4348 7.87572 0.455766 3.70407e-10 2.23251e-10 -2.50449e-10 
224 2 2.4 14.6475 0.242819 5.94342 -3.76107e-11 2.36942e-11 -8.32212e-11 
290 1 -1.2 13.3108 1.15756 2.42158 -5.5256e-11 4.71303e-11 -2.60986e-11 
286 2 2.4 14.4253 6.74074 7.70702 -8.23492e-10 -3.74009e-10 4.73394e-10 
205 1 -1.2 9.20383 1.4546 4.65775 -4.55443e-11 -2.16055e-10 -4.72999e-11 
1 1 -1.2 13.2214 5.80096 3.74773 1.6305e-10 -2.16827e-10 8.68105e-11 
12 1 -1.2 9.92352 2.59507 2.50874 -8.69924e-11 -1.14179e-10 -6.01164e-11 
13 1 -1.2 16.6876 3.91487 5.56829 1.57668e-10 1.50432e-10 1.57348e-10 
25 1 -1.2 10.545 1.7641 6.86349 -1.08258e-10 1.07241e-10 -9.56364e-11 
29 1 -1.2 13.5526 6.36158 1.20083 9.50453e-11 -4.06533e-11 -8.95379e-11 
32 2 2.4 16.5244 2.50492 6.23377 -1.89995e-11 -5.39429e-12 -2.30738e-11 
50 2 2.4 10.8559 3.33205 1.36773 -1.97443e-10 5.89323e-11 -3.03569e-12 
82 2 2.4 13.301 5.15194 2.27923 -1.38195e-11 -3.05451e-12 -2.32945e-11 
284 1 -1.2 15.7037 1.36768 5.43546 -1.363e-11 1.38756e-11 -4.11206e-11 
114 1 -1.2 12.7909 7.14242 8.00499 1.49389e-11 -4.23099e-11 1.48813e-10 
122 2 2.4 12.6666 0.188522 3.54663 -9.24601e-11 6.10182e-11 -6.33057e-11 
130 1 -1.2 11.9406 4.36809 1.9389 -1.75362e-11 -1.23949e-10 3.62762e-10 
136 1 -1.2 16.5929 5.51513 2.41617 -6.41337e-11 -6.53916e-11 5.69708e-12 
138 1 -1.2 15.1649 6.04603 6.41354 2.4185e-10 -3.06892e-10 3.38251e-10 
142 2 2.4 13.4253 1.59421 0.776723 -3.37849e-11 2.74833e-11 -3.43816e-11 
148 2 2.4 13.8132 2.52732 7.82028 -1.37443e-09 1.94664e-12 9.10315e-11 
158 1 -1.2 15.2828 2.89698 7.37499 -6.35242e-11 3.3221e-11 -7.37641e-12 
171 2 2.4 10.9234 2.54181 8.15504 1.36251e-09 3.92412e-11 -1.90452e-10 
240 1 -1.2 9.66208 4.06423 0.572876 2.46576e-11 6.91557e-11 -1.09213e-11 
204 1 -1.2 12.4142 3.31302 7.78822 -3.35479e-11 1.25753e-11 5.03611e-11 
267 1 -1.2 14.6 4.13654 2.12235 -4.98106e-11 -5.2457e-11 -6.87364e-11 
266 2 2.4 10.3038 0.841486 5.55541 8.0006e-12 -2.03265e-11 3.45792e-11 
222 2 2.4 8.6195 2.29801 3.47887 4.8203e-11 -3.48633e-10 4.09361e-10 
236 1 -1.2 11.6061 0.739082 4.61285 -2.89736e-11 8.48612e-11 -1.71547e-11 
260 2 2.4 16.2183 4.06176 1.91228 -2.6427e-10 -3.64643e-10 -6.21654e-10 
238 2 2.4 16.2879 7.27856 2.47666 1.30729e-10 -3.74975e-10 9.97792e-11 
271 1 -1.2 13.7546 0.128535 0.158535 -1.00948e-10 -6.39688e-12 -2.6261e-11 
59 1 -1.2 14.932 7.53197 3.35404 1.40378e-11 1.093e-11 1.09758e-11 
154 1 -1.2 16.1193 7.72508 1.0396 -1.89905e-10 -8.48307e-11 2.55633e-11 
62 1 -1.2 15.1125 8.18324 7.81516 9.3322e-11 -1.83432e-10 7.57475e-11 
278 2 2.4 11.5711 8.02384 8.29996 -4.75645e-10 -1.821e-10 7.28274e-10 
111 2 2.4 13.3691 7.4599 3.89081 1.6985e-10 -4.46218e-11 -3.5544e-10 
68 1 -1.2 14.7305 2.40053 0.025769 -6.39271e-10 -5.06883e-11 -2.02765e-10 
174 1 -1.2 16.6754 4.20203 0.0708913 -4.69748e-11 -1.74354e-10 7.52321e-11 
22 1 -1.2 16.1701 0.0345494 1.15736 -6.59371e-11 2.55173e-11 8.87723e-11 
207 1 -1.2 12.238 7.97624 2.96733 -3.70973e-10 3.34509e-10 -2.35588e-10 
45 1 -1.2 13.2272 8.37227 5.22895 -1.81915e-10 3.49655e-10 -2.99102e-10 
58 1 -1.2 11.7869 7.88054 0.0583893 4.63734e-11 -1.0645e-11 -2.38278e-11 
210 1 -1.2 7.55797 0.307314 16.2609 -6.76198e-11 -1.0814e-11 4.56192e-12 
21 1 -1.2 3.23583 2.23378 15.6426 -1.29919e-10 3.45103e-11 9.71195e-12 
42 2 2.4 4.40786 6.33651 11.5339 1.89555e-10 -5.70085e-10 2.47741e-10 
46 1 -1.2 5.79612 1.92847 14.8987 -1.72351e-11 8.85919e-11 5.26465e-11 
52 1 -1.2 2.81076 6.86889 13.9819 -1.29241e-11 2.63752e-11 -4.68067e-11 
71 1 -1.2 0.32373 6.45435 10.1625 -7.20325e-12 -3.4242e-11 4.46459e-12 
88 1 -1.2 7.59935 1.91213 9.99957 -1.63406e-10 -7.12018e-11 -1.41965e-10 
199 1 -1.2 1.18406 8.04679 12.2382 1.91658e-10 -9.5048e-11 -1.34884e-10 
107 1 -1.2 7.18881 4.76815 13.7739 -2.54506e-10 1.38961e-10 6.47266e-11 
118 1 -1.2 4.34137 4.39626 14.2876 -4.48695e-11 6.17381e-11 -9.30423e-11 
119 1 -1.2 5.27197 2.91444 9.02698 -8.97681e-11 -7.81877e-11 3.61396e-11 
135 2 2.4 5.79238 5.44537 14.0663 -1.54562e-10 -4.76142e-10 1.02259e-09 
145 2 2.4 4.62668 2.95221 15.46 2.15903e-10 6.25718e-10 -3.24701e-10 
20 1 -1.2 2.96669 0.134188 12.3832 -1.45821e-10 -7.65541e-11 -1.54299e-10 
159 2 2.4 2.90175 5.23097 13.8051 1.45695e-11 9.21723e-11 7.53528e-11 
175 1 -1.2 8.35357 1.36321 13.9609 1.48245e-11 -1.00136e-10 1.92218e-10 
179 1 -1.2 5.68832 3.69573 11.5521 -1.51395e-10 -4.14995e-11 2.32889e-11 
181 1 -1.2 5.19481 6.43179 10.1835 -2.0294e-10 -7.48786e-11 5.69399e-11 
185 1 -1.2 5.4053 6.28335 12.7937 7.6124e-12 3.20558e-11 2.71469e-11 
77 2 2.4 5.953 7.29123 9.04165 -2.60494e-10 -1.84897e-10 -9.51137e-10 
225 1 -1.2 5.07396 1.21358 11.0563 3.93312e-11 -1.19406e-10 -5.55425e-11 
245 1 -1.2 7.89725 2.89424 15.9995 -5.93539e-11 3.52065e-10 -1.43769e-11 
270 1 -1.2 5.66971 6.30645 15.3711 -1.22109e-11 5.15336e-11 -7.80506e-12 
272 1 -1.2 3.17655 5.27826 12.18 -4.76411e-12 -1.6978e-11 8.98274e-12 
292 2 2.4 5.53326 2.63932 10.5509 6.17349e-10 -2.3658e-10 1.07269e-10 
15 2 2.4 0.987295 5.45559 16.1609 4.51882e-10 4.46475e-10 -2.24869e-10 
279 2 2.4 2.62944 8.15995 12.9701 -2.78422e-10 4.51763e-10 3.3995e-10 
120 2 2.4 2.01204 1.23325 15.9614 -1.11504e-11 -1.42219e-11 1.16652e-11 
112 1 -1.2 0.49513 1.91356 15.7805 1.75856e-12 -3.36876e-11 -1.2075e-10 
167 1 -1.2 1.78081 4.76546 14.8444 1.61591e-11 -3.69691e-11 -7.55795e-11 
72 1 -1.2 3.61894 7.76048 11.7374 8.6127e-12 3.4682e-11 -9.08124e-12 
208 1 -1.2 7.47764 7.8173 9.45072 -5.84388e-11 -1.30363e-10 5.3674e-11 
294 2 2.4 7.40102 0.465512 9.1413 3.27881e-10 -1.1644e-09 7.68849e-10 
212 2 2.4 0.277407 7.96018 10.8911 7.31787e-11 1.36727e-10 -1.47606e-10 
273 2 2.4 7.35871 1.5741 15.2394 -1.14046e-10 6.60351e-10 -4.32292e-10 
147 1 -1.2 5.26907 3.77396 16.5382 1.044e-11 9.84852e-11 5.13476e-11 
249 2 2.4 12.5679 0.816048 13.298 -2.79271e-10 8.01467e-10 2.70156e-10 
16 1 -1.2 15.5061 2.36079 11.8371 -1.00854e-10 -1.26577e-10 1.06043e-10 
23 2 2.4 8.52045 4.71816 12.8861 -4.09421e-11 4.48198e-11 3.21029e-12 
281 1 -1.2 11.7097 5.50034 13.2475 1.71093e-11 -2.75619e-11 -6.57135e-12 
28 2 2.4 15.7135 2.20542 10.2445 -1.45857e-10 6.17939e-11 3.09184e-10 
30 1 -1.2 15.9757 0.81377 9.4004 -1.93669e-10 2.9057e-10 -1.19656e-10 
285 1 -1.2 10.2957 7.74457 9.16555 1.42155e-11 3.20149e-10 -2.97612e-10 
261 2 2.4 16.5185 5.22356 9.24612 -1.89353e-11 -1.27161e-12 -3.70575e-11 
91 1 -1.2 16.3916 3.67433 9.83527 6.41105e-11 1.71748e-10 -2.52461e-10 
247 1 -1.2 12.6057 1.38476 11.745 -1.45582e-10 2.98792e-11 -5.50432e-11 
121 1 -1.2 9.59864 1.96248 11.6035 -1.46236e-10 8.78811e-11 -1.18003e-10 
218 2 2.4 16.0575 2.89572 15.9734 -2.30466e-10 5.16213e-12 9.30933e-10 
263 1 -1.2 14.9615 5.75415 8.89913 3.34927e-11 -1.28989e-11 -3.72372e-10 
33 1 -1.2 8.5061 4.18197 11.3254 -6.79559e-12 4.40982e-11 -2.86668e-11 
48 2 2.4 12.5385 2.29683 10.5131 2.57158e-11 -3.68895e-11 -1.91491e-10 
65 1 -1.2 13.5 6.28252 11.6316 2.69206e-11 -3.5494e-11 9.70426e-13 
126 1 -1.2 11.0742 1.30228 13.7315 -4.86656e-11 1.8629e-10 -5.23269e-11 
73 1 -1.2 13.8084 1.66258 13.8772 -1.58427e-11 -4.69546e-11 -9.30646e-11 
66 1 -1.2 10.1539 6.47487 15.5435 9.98538e-11 1.10389e-11 1.21028e-10 
105 2 2.4 8.8743 2.88876 10.4467 -7.83197e-10 -4.27961e-11 7.7983e-11 
109 1 -1.2 11.2668 7.94133 13.9898 3.87676e-12 6.44569e-11 -7.38568e-11 
123 1 -1.2 9.29052 6.11499 13.096 -2.02125e-10 2.53618e-11 1.09294e-10 
124 1 -1.2 12.1931 3.83144 11.0107 -6.91918e-11 -8.79803e-11 -2.11342e-10 
134 2 2.4 10.5977 6.45942 13.9611 -1.91668e-10 -7.05585e-11 -1.64664e-10 
141 1 -1.2 15.5238 8.06913 11.279 1.05045e-10 -1.16954e-10 -1.30465e-10 
276 2 2.4 12.756 4.94773 12.1452 -2.46533e-11 -3.93931e-11 -3.70785e-11 
163 1 -1.2 14.0131 2.40511 9.61401 -7.38091e-11 2.01088e-10 4.14208e-11 
166 2 2.4 14.8102 2.80798 13.2546 1.02307e-10 -9.50175e-11 -4.21604e-10 
103 1 -1.2 14.2792 7.71042 15.8605 7.68159e-11 -8.86227e-12 -4.41116e-11 
184 1 -1.2 15.167 6.98248 13.5714 9.02555e-11 1.00692e-10 -2.71657e-11 
188 1 -1.2 13.8449 4.00622 12.8136 -6.47041e-11 -2.12742e-11 -3.99255e-11 
190 2 2.4 14.4138 7.48694 12.2506 8.22469e-11 -2.35872e-10 2.4645e-10 
193 1 -1.2 9.52163 3.5564 13.5146 4.02659e-10 -1.95726e-10 -5.90322e-11 
209 1 -1.2 15.6647 3.28066 14.4998 -1.0199e-10 1.77448e-11 -9.23757e-11 
229 1 -1.2 11.6275 1.69579 9.36605 -8.48497e-11 6.16097e-11 5.48121e-11 
186 1 -1.2 9.71442 3.14575 9.07455 -9.47593e-11 -2.21283e-10 1.16396e-10 
195 2 2.4 9.68021 1.95386 13.273 -3.59832e-10 2.34215e-10 -1.49e-11 
132 2 2.4 10.312 7.59976 16.6397 -1.16685e-10 -1.91724e-10 6.00976e-11 
187 1 -1.2 16.7846 6.47088 15.5278 5.08422e-11 -7.18213e-11 2.43899e-11 
283 2 2.4 15.6882 7.54455 15.0726 -2.04988e-10 -8.76819e-11 2.99907e-10 
6 2 2.4 5.99445 14.1042 7.7471 -7.99756e-11 2.17847e-10 -2.40073e-10 
14 1 -1.2 3.94078 16.5996 2.75289 8.63246e-11 3.66577e-10 -2.51713e-10 
248 2 2.4 2.65283 16.5402 3.79803 -6.19186e-11 1.4914e-10 2.29817e-11 
55 2 2.4 6.33059 12.9521 4.96769 2.07522e-10 2.48742e-10 -5.87721e-11 
78 1 -1.2 3.5604 12.2349 3.92416 1.36127e-10 9.52175e-11 -6.09918e-11 
86 1 -1.2 5.29451 14.0162 4.27426 9.09427e-11 -3.52464e-11 -1.21525e-11 
96 1 -1.2 4.15983 15.5604 0.302499 -5.4996e-11 7.85488e-11 -3.22943e-12 
102 1 -1.2 7.98023 12.954 4.906 1.22e-10 7.06122e-11 2.96065e-10 
106 1 -1.2 4.25949 9.84568 6.72651 1.77219e-10 -5.22818e-10 -7.40449e-11 
128 1 -1.2 5.97585 11.6477 4.08255 2.99671e-10 3.72974e-12 -1.06517e-10 
139 1 -1.2 4.60077 11.0963 1.79185 -4.96208e-12 7.00116e-11 2.24956e-11 
140 1 -1.2 6.38251 15.8474 1.40389 -5.89985e-11 1.10288e-10 -4.13943e-11 
150 1 -1.2 6.61203 10.4668 0.416228 -1.51736e-11 -1.8896e-10 6.80678e-11 
169 1 -1.2 2.74472 14.9184 4.11191 -7.5308e-11 -1.79104e-10 2.55689e-10 
182 1 -1.2 5.97616 13.0075 6.55694 -6.13927e-11 7.5829e-11 5.10723e-12 
191 1 -1.2 2.42187 16.3928 7.6063 -3.2549e-11 -8.34629e-11 -6.50545e-11 
99 2 2.4 7.65494 15.798 0.39192 2.50275e-10 -1.03029e-09 2.65131e-10 
93 2 2.4 4.287 10.0197 8.36422 3.75864e-10 7.3819e-10 5.48691e-10 
213 1 -1.2 4.56286 14.7812 7.94565 -1.51815e-11 1.20814e-10 8.45517e-11 
230 2 2.4 5.18466 11.1539 0.317754 5.15488e-11 7.04551e-10 7.24386e-10 
246 2 2.4 4.57701 11.0448 3.40367 -1.5184e-10 1.01391e-09 1.05155e-10 
252 2 2.4 3.75246 13.8068 3.62799 4.30226e-10 -1.07619e-09 -5.53517e-11 
38 1 -1.2 7.27167 15.0219 7.25697 9.79221e-11 -2.31629e-11 5.05018e-11 
262 1 -1.2 4.3545 9.68555 4.08819 1.98333e-10 1.74062e-11 -7.18576e-11 
297 2 2.4 4.8939 16.5801 1.44327 -7.28292e-11 1.37314e-10 -3.77468e-11 
300 1 -1.2 3.78708 13.8383 2.00498 6.03057e-11 -4.0468e-11 -4.08479e-11 
131 2 2.4 4.07648 8.83514 5.41517 2.1577e-12 -3.87905e-10 3.29393e-11 
116 2 2.4 3.77783 13.9709 0.401294 4.47217e-10 -3.87895e-10 -1.42971e-10 
67 1 -1.2 0.0458751 10.1504 7.74834 -1.69287e-11 -2.56378e-11 5.16763e-12 
31 2 2.4 15.0999 16.0287 0.182633 4.6475e-10 1.19708e-09 4.08628e-10 
160 2 2.4 14.8533 12.9285 0.43597 -2.94101e-10 -9.27721e-10 2.63996e-10 
69 1 -1.2 9.09118 8.44127 0.210866 2.05159e-10 -2.26552e-10 8.63945e-11 
79 2 2.4 9.22227 11.9797 4.85206 1.53726e-10 2.55697e-10 2.44504e-11 
274 1 -1.2 9.64825 16.2308 5.98686 1.71515e-10 -7.7851e-11 1.54702e-10 
293 1 -1.2 9.17649 15.6443 1.14666 1.21341e-11 -3.3518e-11 4.95859e-12 
200 1 -1.2 10.6968 13.6306 1.79054 1.1803e-10 -2.61379e-11 7.83408e-11 
143 1 -1.2 11.5862 15.9785 2.58554 -5.54388e-11 2.02779e-11 -1.88502e-11 
51 1 -1.2 16.4687 12.7883 0.171831 8.09255e-11 -1.08636e-10 5.24595e-12 
254 1 -1.2 13.6918 9.33677 1.11249 1.7864e-10 -2.29609e-10 -4.5118e-10 
298 2 2.4 8.83567 15.5645 7.1702 3.07342e-11 -1.33605e-10 4.81118e-10 
215 1 -1.2 14.5786 10.2538 6.28111 -3.69082e-11 7.69983e-11 -1.40767e-10 
152 1 -1.2 11.3625 9.47197 7.79367 1.62331e-10 4.01836e-11 2.19731e-10 
228 1 -1.2 8.9561 9.6678 8.17225 1.06213e-10 -2.05021e-10 -8.8275e-11 
217 1 -1.2 8.69042 16.8068 8.27894 1.06365e-10 1.3363e-10 1.58214e-10 
244 1 -1.2 15.4567 16.2623 7.12229 -3.7879e-11 1.15518e-11 -8.534e-11 
10 1 -1.2 9.8578 11.8635 3.49227 6.74027e-11 -9.96507e-11 1.22334e-10 
173 2 2.4 13.4379 10.6221 2.06616 -1.38443e-11 -4.48644e-11 -2.92188e-12 
19 2 2.4 13.3681 10.081 5.19379 3.36846e-10 3.95352e-10 -5.42932e-10 
27 1 -1.2 12.1306 10.907 5.59305 2.34084e-10 8.13714e-11 4.93074e-11 
37 1 -1.2 9.4837 11.419 0.901547 -8.515e-11 1.58674e-10 1.13634e-10 
137 1 -1.2 9.7101 14.2844 7.53243 1.38421e-10 7.38458e-11 2.50374e-10 
157 1 -1.2 14.713 14.5388 0.681538 -1.37591e-10 -4.1779e-11 7.78782e-11 
49 1 -1.2 9.48381 11.198 6.13093 -5.04863e-11 4.29593e-11 2.53992e-10 
268 2 2.4 10.4849 11.9066 1.92491 -5.69018e-11 2.45678e-11 3.53746e-11 
61 2 2.4 10.5195 15.1445 1.80141 7.15709e-11 -2.78215e-10 1.66694e-10 
76 1 -1.2 13.748 10.3699 3.63465 9.45078e-12 1.15377e-10 2.9849e-10 
83 2 2.4 10.1536 10.633 7.5077 1.14996e-10 -2.17958e-11 2.91221e-10 
206 1 -1.2 11.917 11.2083 1.91901 -4.68955e-11 1.77578e-11 1.96621e-11 
214 1 -1.2 13.8376 16.5104 4.64222 -4.07021e-11 -7.62361e-11 -3.83046e-10 
201 1 -1.2 14.3466 11.8904 1.50317 -9.51092e-11 1.49139e-12 -1.48647e-11 
108 2 2.4 15.2964 9.77548 7.6057 1.95087e-10 5.79347e-10 -7.86054e-11 
26 2 2.4 0.962924 12.788 15.9874 2.49204e-11 -4.82329e-11 -2.93679e-10 
34 1 -1.2 4.8927 15.3508 11.9414 1.69627e-10 -3.93177e-11 -2.51852e-10 
57 1 -1.2 3.65718 16.2614 9.89268 -2.08389e-10 -3.88691e-10 -2.32913e-10 
60 2 2.4 5.8593 12.1871 10.2822 -1.1023e-09 -1.09487e-09 -5.46692e-10 
197 1 -1.2 0.799552 12.0066 9.3452 -8.72818e-11 6.49229e-11 -4.07369e-11 
74 2 2.4 4.12535 10.6701 14.1709 -2.84887e-10 -8.17905e-11 -6.55633e-10 
115 2 2.4 4.46117 13.7885 12.9269 4.11721e-11 5.43124e-10 -3.43561e-10 
258 2 2.4 6.42795 13.5073 15.3669 -3.97357e-10 2.90378e-10 2.50447e-10 
117 1 -1.2 5.6693 10.3265 13.6892 -6.38668e-11 3.8733e-11 2.25467e-10 
125 2 2.4 2.22764 16.0311 13.5109 7.99883e-11 1.69258e-10 3.51735e-11 
251 2 2.4 7.58448 9.17194 16.7788 1.51795e-10 -2.06633e-10 5.89823e-10 
133 1 -1.2 6.99922 12.1046 14.9394 -1.10637e-10 8.01574e-11 -7.27576e-11 
144 1 -1.2 3.83581 12.1401 13.6753 2.07066e-11 -2.62298e-10 1.18762e-10 
153 1 -1.2 0.683648 9.27568 10.0175 4.44532e-11 -2.30203e-11 -2.87981e-11 
162 1 -1.2 5.46949 14.0187 14.2403 -1.83098e-10 9.91648e-11 9.2535e-11 
180 1 -1.2 8.19094 10.8117 12.9379 1.13161e-10 -1.20762e-11 1.05184e-10 
198 1 -1.2 0.63494 15.8186 13.3677 -9.75885e-11 1.3848e-10 1.15785e-10 
203 1 -1.2 0.456867 13.3299 11.2963 -1.29575e-11 -4.30307e-11 -1.49004e-10 
226 1 -1.2 2.21539 14.2512 9.21871 1.31017e-10 2.82617e-10 5.96307e-11 
235 2 2.4 0.815036 13.6829 9.70385 -2.13084e-10 -3.82007e-11 -1.72162e-10 
241 1 -1.2 4.98824 12.8008 11.4702 -6.19796e-12 -9.30742e-12 2.42492e-12 
255 2 2.4 3.20028 15.4108 8.62149 2.69076e-10 -5.18278e-10 2.31101e-10 
250 1 -1.2 0.412064 13.8102 14.8524 1.52137e-10 2.82847e-11 2.25448e-11 
257 2 2.4 7.2023 10.6559 14.1537 1.72772e-11 2.88216e-10 -6.82194e-10 
94 1 -1.2 4.36824 10.6787 15.8424 1.24811e-10 8.66716e-11 -1.09562e-10 
280 1 -1.2 3.01801 14.6247 13.3541 -2.68527e-10 2.17499e-10 -1.24571e-10 
288 1 -1.2 7.32166 11.5803 10.6612 4.36268e-11 3.64868e-10 2.74384e-10 
35 2 2.4 7.65661 14.5173 10.5866 3.92863e-10 1.36174e-09 -4.40608e-10 
39 1 -1.2 7.3012 14.5192 16.2144 7.24081e-11 1.75552e-10 -8.81655e-11 
56 1 -1.2 0.840603 11.3246 15.2908 -6.50521e-11 -9.94049e-11 -5.38343e-11 
87 1 -1.2 7.66641 9.52797 15.1896 1.96802e-10 2.06592e-10 2.72626e-11 
220 2 2.4 4.21976 16.6583 11.3571 -3.95647e-11 -5.68812e-10 2.28164e-10 
202 1 -1.2 5.04178 8.65889 8.83256 -3.18998e-10 4.84376e-11 -8.75281e-13 
256 1 -1.2 7.57985 14.039 11.9761 -1.58313e-10 -1.65109e-10 3.32516e-11 
178 1 -1.2 5.07512 11.2504 9.20024 4.15958e-11 -8.06197e-11 3.68943e-11 
295 1 -1.2 0.344773 11.0115 12.7723 -3.43595e-11 2.15029e-10 7.72282e-11 
24 1 -1.2 3.10131 9.52461 13.6544 2.4812e-11 -2.43361e-11 1.12733e-10 
243 2 2.4 1.12802 10.4137 8.90009 -1.1329e-11 -1.24127e-10 3.29025e-11 
127 1 -1.2 2.69941 10.2261 8.70621 3.94579e-11 1.19202e-11 -1.27842e-10 
41 1 -1.2 6.38942 13.5715 9.32156 -8.56846e-11 6.57258e-11 1.11856e-10 
2 1 -1.2 7.24642 15.9972 10.1008 -3.75085e-10 -3.14289e-11 2.74558e-10 
18 1 -1.2 5.12402 12.971 16.7031 2.7537e-11 -1.13604e-11 -2.33271e-11 
85 1 -1.2 2.39556 13.3609 16.5984 3.85812e-11 1.27842e-11 -4.43386e-11 
192 1 -1.2 10.3161 11.945 8.46572 -1.05138e-11 -1.33926e-11 2.66077e-10 
265 1 -1.2 16.3663 9.01571 14.6801 -1.44765e-11 1.48522e-10 1.37187e-10 
80 2 2.4 8.83139 8.64272 9.44763 2.50296e-10 -4.75317e-12 1.82229e-10 
233 1 -1.2 14.8974 16.3259 11.7012 5.06187e-11 1.60405e-10 4.31452e-11 
101 2 2.4 13.1845 14.3486 9.67138 1.84273e-10 4.65919e-11 -3.03051e-11 
211 1 -1.2 8.99405 14.0217 9.82984 -5.30533e-11 -1.59992e-11 1.88755e-10 
164 2 2.4 8.70663 11.06 11.4601 8.3418e-11 1.05488e-10 9.6762e-13 
165 1 -1.2 15.1024 14.4581 13.3817 -6.58033e-11 1.19411e-10 4.51751e-11 
296 2 2.4 14.072 11.5355 9.96532 -1.75992e-11 1.34158e-10 -1.24978e-10 
3 1 -1.2 14.5097 10.4476 8.9061 -9.88117e-11 -5.12504e-11 -4.00748e-11 
5 1 -1.2 12.844 10.2165 14.7653 4.76739e-11 -2.69813e-11 -1.95053e-11 
9 2 2.4 16.5955 12.0355 11.799 -5.20863e-11 -4.09053e-11 8.81184e-11 
43 1 -1.2 15.2839 11.6963 11.0751 -1.00657e-10 -4.84411e-11 1.39252e-11 
44 1 -1.2 12.6872 11.3527 10.7794 -1.9072e-10 -1.80773e-11 -1.23286e-10 
149 2 2.4 15.5651 16.082 8.79137 -2.81151e-10 -6.54588e-12 -5.4668e-11 
70 1 -1.2 13.9429 12.9749 9.25973 1.53451e-11 -3.96355e-11 -2.61023e-11 
75 1 -1.2 15.1686 11.2528 14.153 4.20852e-11 -1.06046e-10 -1.3966e-11 
81 1 -1.2 12.6819 12.1952 13.2744 7.82084e-11 -4.12624e-11 -3.33843e-11 
89 1 -1.2 10.1548 11.9173 11.5063 1.23823e-10 1.13651e-10 -2.51405e-11 
97 2 2.4 16.6786 10.5142 14.2986 3.93381e-11 1.4571e-11 -2.28663e-11 
113 1 -1.2 12.9229 16.0858 13.3005 -3.63796e-11 -4.26199e-11 -3.12093e-11 
146 1 -1.2 15.766 15.8325 15.5195 -3.21802e-10 1.14428e-10 1.84053e-10 
129 1 -1.2 13.323 14.391 11.2852 1.0086e-10 -2.87052e-10 7.10342e-11 
155 2 2.4 13.631 11.6606 14.5613 5.20438e-10 8.19493e-10 3.18831e-10 
151 1 -1.2 11.3856 10.1462 12.7036 -3.36954e-12 -4.85449e-11 1.84744e-11 
176 2 2.4 11.6708 11.5644 12.0269 -1.00406e-10 2.29576e-11 1.4944e-11 
232 2 2.4 14.0447 15.2619 12.4238 6.5936e-10 -1.0398e-09 -3.06765e-10 
234 2 2.4 16.365 15.0233 14.2195 7.3359e-12 2.35478e-10 3.37045e-11 
17 1 -1.2 14.0302 15.5849 9.10018 -8.37677e-11 -1.53399e-10 -1.02134e-10 
282 1 -1.2 9.01875 9.63909 10.6879 5.02278e-11 -4.69266e-11 -6.62506e-11 
47 1 -1.2 13.9484 12.5563 15.8664 1.66157e-10 1.38334e-10 6.41766e-11 
259 2 2.4 12.2053 9.18542 13.6734 -4.65874e-10 -8.52589e-10 -3.60513e-10 
227 1 -1.2 13.4247 8.62913 12.772 -6.14921e-11 1.41175e-11 8.15031e-11 
168 1 -1.2 16.5467 14.8217 9.21167 -5.19466e-11 -3.74632e-10 -8.21704e-11 
110 2 2.4 10.2213 13.5132 8.87408 1.00516e-10 -1.06371e-10 3.68832e-10 
264 1 -1.2 11.6384 14.1382 9.29209 -5.02412e-13 -8.0295e-12 2.81064e-10 
216 1 -1.2 2.24894 16.7974 14.9608 1.07194e-10 5.30139e-11 -5.38232e-11 
