ITEM: TIMESTEP
830000
ITEM: NUMBER OF ATOMS
280
ITEM: BOX BOUNDS pp pp pp
4.9385723208027699e-02 1.5236195276792531e+01
4.9385723208027699e-02 1.5236195276792531e+01
4.9385723208027699e-02 1.5236195276792531e+01
ITEM: ATOMS id type q x y z vx vy vz 
84 3 1.8 6.16506 3.76647 5.2236 0.23233 1.05935 -2.39101 
250 1 -1.2 1.75943 4.14435 1.98701 5.63536 9.1153 1.13956 
217 2 2.4 4.48724 4.17618 0.332113 4.35274 2.87935 -0.260917 
156 5 1.2 3.2246 0.226248 6.99212 1.51548 -5.89212 -2.42392 
213 1 -1.2 0.347998 6.65155 6.89111 -8.2806 -0.24826 2.35119 
127 1 -1.2 4.60302 4.57003 1.82792 3.58467 -1.68218 -4.9238 
104 4 1.2 0.563791 4.69607 4.28457 3.34659 -1.96307 -3.38272 
158 3 1.8 7.1667 3.5937 2.51117 4.48157 8.52311 2.55371 
191 1 -1.2 1.83537 1.00045 0.428594 1.81522 2.73264 -8.44161 
68 2 2.4 1.7285 5.23984 0.877901 -2.90676 -3.53515 -0.238697 
15 1 -1.2 2.47556 5.61188 4.88322 -7.54535 6.09074 0.603122 
10 1 -1.2 3.26892 1.6331 2.78694 -6.99956 4.65441 -2.19543 
29 3 1.8 1.18863 1.60617 5.3496 -5.08287 -3.18097 -0.113555 
7 1 -1.2 4.46376 6.78855 3.61899 -3.55185 3.94689 -2.45305 
155 3 1.8 5.87386 6.47956 2.54422 0.166638 -2.76138 -0.378793 
114 2 2.4 3.57046 6.70006 4.92395 0.429832 -0.134034 -0.251085 
135 1 -1.2 1.94485 3.13451 5.41875 0.671348 -5.33621 -5.49975 
17 1 -1.2 3.05565 2.27043 7.55306 -2.6064 -0.85429 6.13429 
257 2 2.4 3.11723 3.64194 6.5036 -2.24553 1.95783 -0.489319 
18 1 -1.2 6.07371 3.03553 3.77093 -13.2329 6.33639 -0.581618 
258 3 1.8 3.43344 1.32517 1.00411 0.589616 -1.30122 -5.09345 
81 1 -1.2 2.3925 0.517629 5.00941 1.80006 -1.32375 -4.55541 
229 1 -1.2 4.41715 3.71484 5.59059 -0.928175 0.130602 3.46183 
82 1 -1.2 7.40618 2.94535 6.17828 5.3783 4.55681 9.73258 
42 1 -1.2 4.33243 6.63436 6.392 0.851461 -4.10152 -1.58792 
207 1 -1.2 6.97924 2.27495 1.39539 -3.7842 -1.18195 -7.15953 
91 5 1.2 3.79217 3.54818 3.38395 -2.72861 1.62896 -3.39157 
49 1 -1.2 6.87672 5.36261 5.15199 -4.49432 -0.0294931 -2.01045 
57 1 -1.2 1.7275 6.73147 1.43023 3.34217 1.20135 -7.66208 
14 1 -1.2 7.09812 5.30897 2.43952 8.43271 2.42918 -5.17256 
67 1 -1.2 5.62369 0.179286 7.31742 4.29291 -7.14397 -2.32569 
260 2 2.4 3.17663 0.195366 3.62443 0.271119 -0.345892 5.39424 
239 4 1.2 0.523381 2.16529 1.88152 -2.98001 0.0249777 -1.39499 
111 4 1.2 6.69169 0.715636 3.01143 1.04428 1.9382 -2.41641 
220 1 -1.2 2.58622 4.87286 7.51301 0.84867 -0.852997 -5.72931 
150 1 -1.2 4.2033 2.6508 0.265609 1.56286 6.02138 -3.39822 
8 1 -1.2 5.49794 7.46169 1.15577 7.1078 6.37181 -1.87158 
45 4 1.2 6.82757 5.93795 7.40916 1.33811 -5.87049 0.879036 
2 1 -1.2 0.190749 4.09866 7.36811 -1.83115 -5.73867 3.51823 
39 3 1.8 7.74527 6.76617 4.64311 3.3333 1.5779 -2.10399 
125 1 -1.2 7.73645 0.43926 5.14515 2.24711 2.86368 4.9216 
16 1 -1.2 4.09033 2.79882 10.1686 3.44384 -1.23282 4.86376 
199 1 -1.2 3.10508 4.90995 14.9305 1.33935 -6.08525 0.524154 
280 1 -1.2 5.28778 4.3197 8.17922 1.35418 -2.14887 -0.456619 
181 1 -1.2 5.66541 1.63351 12.1121 -3.48267 -1.69638 -6.12449 
170 1 -1.2 3.88181 3.55983 12.6297 -1.92586 -0.417303 -1.5638 
225 4 1.2 1.02897 1.23489 13.3031 -0.39497 1.41072 -3.60402 
116 1 -1.2 6.40968 0.746486 9.66841 -0.281321 -4.07372 -1.85608 
240 2 2.4 4.22306 2.22563 11.7927 1.21743 -8.74199 -5.03831 
236 2 2.4 1.00616 7.03867 12.5499 -1.35576 -0.589235 0.199736 
124 4 1.2 6.27871 1.18867 14.4201 2.53178 -4.02315 3.36055 
27 1 -1.2 1.45309 2.20908 9.98507 2.79402 0.148769 -1.78256 
184 3 1.8 3.98584 6.33073 8.08061 -4.80739 3.68886 -0.924349 
200 1 -1.2 3.23433 1.04222 12.2077 5.29519 0.412792 0.484544 
139 1 -1.2 3.9578 0.317079 9.19155 -3.2615 -3.05042 -5.50271 
56 1 -1.2 4.02974 5.46876 9.88602 0.739579 6.84578 -1.5487 
188 1 -1.2 6.29811 4.14518 10.4778 -6.0368 5.49415 -6.12269 
4 4 1.2 7.35957 2.97499 8.71055 3.12438 4.13624 2.34589 
274 2 2.4 7.42902 4.73938 14.5136 0.999172 -1.56168 -3.5619 
272 3 1.8 3.37677 5.05639 13.1257 -1.58065 0.663289 -1.2838 
266 1 -1.2 1.87733 5.64384 12.4916 -0.695927 0.116395 -8.36241 
77 3 1.8 2.79331 1.65957 9.23877 -5.77593 5.3316 -0.924637 
64 4 1.2 0.613946 4.04483 11.0912 3.58067 -0.410018 -1.32828 
13 2 2.4 4.86843 4.13722 9.70092 -1.83433 0.216611 0.869222 
251 1 -1.2 0.762691 5.675 9.31252 -6.48515 1.7401 -1.24273 
228 2 2.4 0.990342 5.39933 7.80063 -1.21381 -3.30601 0.357371 
113 4 1.2 6.58428 5.88361 11.9607 -0.967734 5.04571 0.15715 
69 1 -1.2 5.90211 4.64538 14.8983 -0.364247 -3.543 -1.79143 
219 1 -1.2 4.45836 6.35378 12.9243 1.10626 1.12518 1.94303 
93 3 1.8 7.08577 1.01851 11.2035 2.40378 2.45879 -0.732364 
30 1 -1.2 7.81392 6.2147 13.9383 4.04201 -3.71473 0.547094 
147 1 -1.2 0.388052 4.95663 15.1978 -3.41599 3.18915 6.88816 
1 1 -1.2 7.63677 3.94474 13.1504 -0.630323 -2.20172 -10.5602 
176 1 -1.2 0.182373 3.28897 13.2259 4.9637 6.0228 -1.73867 
92 1 -1.2 3.63602 11.325 5.19389 -6.94451 2.24747 -4.72794 
66 1 -1.2 5.96082 13.1336 1.31798 1.08354 -2.0834 0.57499 
141 1 -1.2 5.63555 9.77101 5.60114 -2.08308 -0.629476 -1.77011 
223 1 -1.2 1.5175 12.0948 6.57966 5.22975 2.29093 -3.49596 
61 1 -1.2 0.69493 9.68211 0.702411 0.538659 3.09041 -4.85674 
75 1 -1.2 2.14452 14.4226 2.74989 0.423151 -3.69414 4.60995 
35 4 1.2 5.84073 13.9375 5.48323 -1.92794 5.77997 -0.903913 
137 1 -1.2 4.63184 14.8846 3.7894 -4.80874 2.258 5.8813 
23 4 1.2 4.17481 9.03058 7.24823 4.3261 7.43473 -1.87633 
89 3 1.8 0.237026 10.4837 2.18057 -1.87217 4.43114 -1.93727 
278 2 2.4 3.06526 12.0721 6.54856 -1.12102 3.53399 3.11545 
126 1 -1.2 4.52166 10.1044 3.01793 0.318781 -0.810156 4.43997 
231 1 -1.2 0.92473 9.58656 5.89306 0.611446 3.00928 -3.50745 
3 3 1.8 0.377195 10.7415 7.1115 1.68625 -1.00937 0.174583 
255 4 1.2 1.8505 13.7085 0.542536 -2.04381 -2.37393 0.402055 
115 1 -1.2 3.61091 13.5362 6.46672 0.144394 -5.67853 -2.86939 
122 4 1.2 3.40958 8.16251 2.06193 -0.0976611 2.04637 -3.46251 
11 1 -1.2 6.17474 11.7505 4.13616 -1.68252 -5.03079 -3.19674 
110 1 -1.2 6.91083 7.75703 3.4375 -2.21632 3.17771 1.8437 
202 2 2.4 1.32006 8.89497 4.60094 -7.22603 1.00555 3.90425 
108 1 -1.2 1.46689 10.0486 3.42108 1.28464 4.33225 4.98229 
182 4 1.2 5.1275 10.6614 0.823568 -1.83788 -1.55314 -3.17409 
121 2 2.4 5.02113 10.6237 4.40529 -0.721502 -1.79903 1.05874 
38 4 1.2 1.84386 12.3434 3.92852 -2.26139 0.557625 1.17722 
112 1 -1.2 2.65899 8.08192 4.78351 -6.35776 0.624987 1.94515 
252 1 -1.2 0.320181 12.1876 2.06668 -3.88259 -0.68 5.72051 
103 2 2.4 5.08778 13.6983 0.225725 1.03587 3.84365 5.50221 
146 1 -1.2 4.39776 15.1397 0.653972 0.257495 6.02817 -1.09637 
261 1 -1.2 7.45325 10.1852 1.53626 -0.767546 -2.76012 4.59542 
50 4 1.2 -0.13522 14.1438 6.75067 -1.45336 -0.483279 1.041 
177 1 -1.2 0.454179 12.836 9.52711 -0.278073 -3.37652 1.41828 
37 2 2.4 6.52045 8.39643 9.47833 1.67731 -0.24321 1.65361 
43 4 1.2 3.88701 7.70329 10.8312 3.40341 -0.740132 5.6009 
40 1 -1.2 2.41535 11.7009 10.7652 1.83963 -2.16954 -3.6262 
268 1 -1.2 4.59971 9.85771 11.9025 1.72414 -3.08369 5.59889 
194 1 -1.2 5.81132 13.4385 9.02433 4.77726 3.46922 2.0208 
248 1 -1.2 1.68082 8.00258 11.493 3.00144 0.687394 -1.92471 
102 1 -1.2 5.78828 14.0641 13.9715 7.34189 5.70987 2.77876 
222 1 -1.2 3.67996 11.2382 7.77992 1.0568 -6.41816 1.50583 
128 2 2.4 1.53705 9.26251 14.6483 -1.50067 -2.36049 2.39758 
208 2 2.4 1.04832 11.3405 10.0667 -3.68996 -0.680662 -1.51309 
256 1 -1.2 6.15308 10.0841 14.0137 -5.51631 -4.27676 3.64863 
264 1 -1.2 4.29145 13.954 11.6909 -3.284 -0.0878646 -1.17333 
183 1 -1.2 0.858005 10.4363 8.72391 -6.15803 -4.11934 1.44962 
133 1 -1.2 6.08897 11.9906 11.9841 4.72669 -1.68413 -1.07805 
238 3 1.8 6.23458 10.2728 12.2013 0.456688 -0.307817 -0.131683 
20 1 -1.2 1.10222 10.4667 13.6555 0.25221 -0.281959 -0.121126 
197 4 1.2 0.785594 8.11907 9.35108 -4.21675 -2.11138 -0.558409 
204 4 1.2 5.04439 8.14548 14.1974 -3.22132 1.27903 1.02503 
265 4 1.2 3.28805 11.5189 13.0651 2.73449 -2.60303 1.52373 
63 4 1.2 4.59415 11.4782 10.1238 4.00549 -1.05147 2.19948 
214 1 -1.2 1.74001 14.6612 10.8793 4.24149 1.50587 1.93664 
234 1 -1.2 7.28255 14.5078 11.8207 4.62858 -6.73837 0.82849 
86 2 2.4 0.726837 14.5113 9.56809 1.01341 3.44757 -2.6182 
144 3 1.8 5.85996 13.684 12.2447 2.39059 -0.212654 -1.70382 
94 2 2.4 2.85545 14.5768 12.0051 5.47531 -2.66764 -1.72401 
221 1 -1.2 2.23623 14.0232 13.3337 2.15181 -4.44802 0.632466 
167 1 -1.2 1.08515 7.87387 13.9028 -3.26701 1.6459 1.08438 
148 1 -1.2 6.06911 9.87603 9.05646 3.5631 -7.69334 -3.23038 
189 1 -1.2 6.46751 8.01436 11.0438 5.65616 -1.94009 -3.90362 
140 1 -1.2 1.54945 14.9342 8.32833 -5.85056 -1.15728 3.23565 
151 2 2.4 5.35803 14.9899 8.85612 -2.81236 -0.932941 0.277291 
242 1 -1.2 3.07654 9.29447 14.9706 1.87001 -4.87244 2.57793 
230 1 -1.2 0.0956972 10.8248 11.293 2.27331 -1.33748 2.77898 
259 1 -1.2 5.46926 7.4879 8.67511 1.4546 0.620482 -6.77796 
209 1 -1.2 2.83511 7.60696 8.40287 -5.98012 3.69624 4.31965 
47 4 1.2 6.6018 11.636 7.57754 0.109218 0.372801 2.63484 
246 1 -1.2 3.94974 12.5079 15.183 1.06273 -0.165488 -3.863 
41 2 2.4 12.5971 3.92188 2.67235 -2.04855 -4.06616 -6.84692 
193 2 2.4 11.55 7.3886 0.9379 1.18246 3.36446 -6.27856 
149 2 2.4 14.4203 2.80287 7.20192 -0.841998 -4.81426 5.84287 
32 1 -1.2 13.4728 5.77346 5.68121 6.71961 2.59032 -1.67041 
174 1 -1.2 11.705 4.08265 4.09534 -6.32927 6.8274 0.630185 
62 1 -1.2 12.7426 0.508847 4.89068 -0.365624 7.24303 6.09493 
9 1 -1.2 11.0919 4.93648 6.66911 1.55239 8.11352 10.5105 
138 1 -1.2 13.4826 3.11659 5.97022 5.64448 5.26015 2.82402 
130 2 2.4 14.0486 7.08619 6.56843 -0.34001 -1.91058 -1.02148 
46 1 -1.2 8.76547 3.21929 3.33106 0.896823 -0.23381 -4.09391 
210 5 1.2 11.2818 0.679754 6.21402 -0.528735 -2.32931 4.84778 
233 2 2.4 13.5852 1.03238 3.69534 2.72066 3.31671 -2.08044 
192 1 -1.2 13.883 4.74089 2.62357 -4.59044 -3.59355 0.105187 
134 4 1.2 9.53256 5.2859 2.21015 -3.01349 -1.01893 -0.121779 
19 4 1.2 12.5433 0.968204 0.704582 1.06384 1.17172 4.13788 
78 2 2.4 8.28768 1.56508 6.08607 5.54469 3.30663 2.11137 
152 5 1.2 10.5687 2.33635 3.73378 -3.82426 -6.12416 -1.21338 
26 4 1.2 9.17833 4.21316 5.41889 0.520411 2.41099 -0.696829 
166 1 -1.2 9.36141 6.41275 4.2782 1.69109 0.778693 -5.99155 
153 1 -1.2 11.4389 3.82966 1.65775 -0.303002 0.759303 -4.40065 
132 4 1.2 14.5423 7.03016 1.94883 0.733621 1.55617 3.23542 
203 4 1.2 9.20138 1.87768 0.857354 -2.25035 2.23729 -0.465462 
262 1 -1.2 8.52883 7.61918 1.20108 -0.575551 1.94707 1.43303 
277 3 1.8 12.409 4.36114 5.64146 0.558002 3.07017 2.58203 
105 1 -1.2 9.83169 1.96331 5.59828 -2.64573 0.603064 1.97143 
143 1 -1.2 13.052 2.35687 2.95064 -0.233612 -0.920786 0.418279 
74 1 -1.2 8.52595 1.2573 7.61083 -3.65179 -0.280049 0.161523 
205 1 -1.2 10.7325 0.860862 2.5647 -7.17331 -4.9119 8.27261 
180 1 -1.2 11.6569 6.59729 2.33689 -0.166282 3.0389 -5.77814 
145 4 1.2 11.2893 7.17499 5.212 -0.0428795 3.19776 0.87597 
119 1 -1.2 8.72164 4.22302 0.250728 -0.25292 -2.88496 -7.8954 
83 1 -1.2 15.2416 1.50412 6.73482 -3.34129 -1.86616 2.09929 
87 1 -1.2 15.2377 1.57606 4.00878 2.35797 -2.66462 8.14049 
175 3 1.8 10.4402 4.93715 8.30368 -2.44761 -5.21651 -1.34189 
211 5 1.2 9.91372 1.43944 9.26677 -2.20192 -0.908444 -0.083026 
218 1 -1.2 11.1088 3.50707 9.21649 -4.39337 0.39615 1.4395 
70 1 -1.2 8.76869 4.87813 7.94511 -3.57237 -10.0522 4.36022 
279 4 1.2 13.5212 6.40224 10.2867 -1.8775 0.66968 2.99338 
163 1 -1.2 8.56311 1.13669 13.8147 -4.73024 0.348893 -2.65471 
59 1 -1.2 9.02585 5.24052 11.1767 -4.69353 2.00235 0.295852 
88 3 1.8 10.0746 1.68676 13.1619 -6.36578 1.21001 3.17567 
173 3 1.8 8.86365 7.31559 14.7841 0.163387 -3.37544 -0.650647 
263 1 -1.2 8.35138 2.21296 10.8206 -1.13234 -1.61072 2.45693 
100 1 -1.2 13.1774 4.17201 10.5181 -2.7314 -2.21793 0.266243 
187 1 -1.2 10.7001 6.30535 9.48516 -4.02362 -1.72631 7.82313 
159 1 -1.2 14.6985 6.64833 12.1864 1.48533 1.09394 0.921082 
195 4 1.2 10.9701 4.30293 14.69 4.59372 -0.809098 -0.17584 
245 1 -1.2 13.4838 2.67059 8.45144 4.0332 -1.35909 6.96772 
206 1 -1.2 11.1288 1.82001 14.4828 2.72217 -1.88228 -7.67527 
97 1 -1.2 13.0838 4.48306 13.8894 0.597931 -8.10751 -1.54267 
76 2 2.4 12.5332 2.93815 9.66635 -1.63946 1.94635 3.93646 
24 3 1.8 8.65494 3.64583 11.7041 4.07567 -0.620287 0.0192326 
48 1 -1.2 12.523 1.57671 10.5675 5.4036 2.1475 0.0946139 
165 2 2.4 14.5336 3.86255 14.3949 2.22505 -1.68964 2.02573 
31 1 -1.2 11.5703 0.850694 8.20443 0.136959 3.21895 -3.94648 
160 1 -1.2 11.3126 6.13234 12.0521 -5.22441 -6.93958 -3.28888 
25 2 2.4 10.0858 6.40951 11.0296 1.35134 -2.01997 2.49476 
172 5 1.2 12.1081 4.4198 12.1567 5.4065 -1.22438 -2.44975 
216 1 -1.2 10.2597 3.23364 12.3789 2.72102 -3.16908 2.24716 
51 5 1.2 12.8389 0.373724 12.0929 -5.98092 -0.0159426 0.364464 
269 1 -1.2 10.6186 0.328336 12.1731 1.50521 0.729207 -1.28694 
12 1 -1.2 10.5449 6.70686 15.0941 -0.331148 0.0996806 2.31602 
101 1 -1.2 13.3662 7.17064 8.02985 -1.72294 0.609405 3.34778 
235 3 1.8 12.7905 -0.0303385 9.17787 -1.65451 5.60503 6.7566 
227 4 1.2 12.7758 7.74076 13.0407 4.65545 1.82073 2.34364 
186 1 -1.2 14.2145 2.59022 15.3033 3.90645 -5.25456 -0.195829 
171 3 1.8 11.823 13.1307 6.79621 0.80787 -1.38033 -5.66435 
28 1 -1.2 11.1529 8.9026 1.41388 -1.72751 0.0954151 1.60285 
154 1 -1.2 12.5972 11.467 0.439866 -0.947041 -0.929444 -1.18363 
131 2 2.4 11.8237 12.2212 1.59748 -2.58441 -1.9448 -2.19953 
22 1 -1.2 11.0314 13.5269 1.41961 3.61501 -1.69022 5.88164 
270 1 -1.2 12.9232 7.65657 0.315623 -2.56242 -5.6089 3.66423 
247 1 -1.2 13.4337 8.30814 5.823 -2.87356 -0.626254 -11.2721 
106 1 -1.2 14.6131 13.8752 0.269804 9.42981 3.49917 7.87009 
79 3 1.8 13.7267 9.06443 4.14175 -1.89709 -0.704703 5.27994 
117 1 -1.2 9.31752 13.5677 3.76369 -5.52557 8.45813 -8.95098 
5 1 -1.2 13.9458 9.45729 2.30504 0.970103 -2.90559 1.54087 
215 1 -1.2 9.88187 11.5302 5.36944 6.20167 1.67303 6.04697 
249 1 -1.2 11.7798 9.15774 4.00015 4.95502 -4.56197 0.774423 
226 3 1.8 9.98207 14.5143 2.37497 -6.11187 1.24916 0.229334 
244 1 -1.2 7.86787 12.9114 6.11793 -1.75721 -0.979575 1.22784 
53 1 -1.2 12.5073 12.6094 5.33424 3.02312 -0.701887 -3.02836 
168 1 -1.2 8.65094 9.92515 7.4011 0.884774 -3.18465 8.96797 
164 4 1.2 7.8765 12.3054 2.31055 3.87755 2.50187 -0.467789 
169 2 2.4 13.57 12.3248 4.24836 1.24168 0.486399 2.36952 
96 3 1.8 7.81653 8.70746 2.25557 5.20881 -1.15338 1.16207 
241 1 -1.2 13.0168 12.6665 2.66792 -0.678904 1.20306 -1.44341 
198 1 -1.2 11.0021 11.198 2.46105 -6.14728 1.68599 5.60995 
232 1 -1.2 9.26162 9.36477 3.25844 -0.792196 -1.88965 3.54831 
107 2 2.4 10.7902 9.62417 2.83326 -8.09697 0.853424 4.37272 
90 1 -1.2 8.56354 14.7553 1.47992 -0.861435 -3.09324 -0.797666 
267 4 1.2 11.9778 10.4098 6.10344 -2.31089 -2.0963 -3.5472 
80 1 -1.2 10.3494 13.9405 6.16995 7.28226 3.95091 1.29793 
54 2 2.4 9.3032 13.0971 5.29487 0.560981 1.24818 0.398865 
36 1 -1.2 13.9741 10.8408 4.42378 0.584538 -1.37176 -0.947957 
275 1 -1.2 14.8441 13.2404 4.42872 1.12127 0.462261 -1.10131 
129 1 -1.2 10.359 8.10902 7.30553 -5.20218 6.28949 -3.30015 
33 3 1.8 14.5304 13.6073 2.06221 7.51708 3.40492 5.96632 
118 4 1.2 7.95773 10.1365 5.02487 2.80618 3.50464 -4.2016 
224 5 1.2 13.376 9.69958 0.280959 -3.39317 0.862298 -1.26862 
271 2 2.4 8.79682 8.29159 7.50155 2.34464 3.03016 1.69356 
178 1 -1.2 13.963 11.1739 7.27321 -4.84164 5.2585 2.94649 
55 1 -1.2 7.93944 7.69877 6.19892 4.56175 1.53092 -4.58565 
71 1 -1.2 13.9481 15.2509 2.50166 -3.05752 -2.20747 -1.10525 
6 1 -1.2 15.1979 7.99118 4.11032 -2.44225 -4.81683 2.4566 
58 1 -1.2 8.81858 8.82159 13.9436 7.30212 -0.573596 3.8965 
201 1 -1.2 13.7564 9.77872 13.4616 -6.31438 2.39714 -0.780935 
196 1 -1.2 9.29547 11.8553 14.722 1.20837 -3.2556 4.01851 
254 1 -1.2 12.4199 8.61674 10.49 -2.46206 -0.761215 2.19122 
44 1 -1.2 10.1111 13.0334 12.0584 -0.561698 0.225926 4.50171 
65 4 1.2 13.1592 12.2648 9.2878 -1.74643 4.31183 -2.48801 
85 1 -1.2 12.4342 13.9279 13.9129 -1.19252 6.08764 7.86955 
276 1 -1.2 9.65234 14.7705 10.0674 0.0125955 -6.11089 -7.19673 
253 4 1.2 11.3472 11.8139 13.5581 0.526368 -2.82424 -0.717565 
237 2 2.4 14.0191 13.7202 13.9516 -1.78252 0.893442 -6.20525 
273 4 1.2 9.33426 14.1079 14.3881 -0.244513 2.90619 -3.87826 
73 5 1.2 7.92802 10.4565 14.8552 2.29854 -2.76398 5.05141 
157 5 1.2 11.7397 7.98705 8.73558 6.2901 -5.09484 -6.10609 
190 1 -1.2 8.00108 10.1711 11.864 -2.45028 -3.36346 -0.949059 
99 4 1.2 8.24015 14.2336 8.30277 2.85044 -0.973463 -2.59714 
142 1 -1.2 12.0429 14.093 10.4624 1.49843 0.806424 2.64035 
120 1 -1.2 8.73941 12.0722 8.92404 -2.59774 1.51841 -5.88897 
72 1 -1.2 12.4714 11.1998 11.0758 0.412659 -2.00519 -3.42615 
161 1 -1.2 10.5719 10.0868 9.56399 4.92808 -6.0831 -1.34384 
185 3 1.8 9.7819 11.0218 8.28776 2.90144 -0.592878 5.13816 
212 1 -1.2 10.6112 9.78784 12.2328 -0.635737 -2.0375 -5.1098 
243 1 -1.2 14.4725 12.345 13.3561 1.8236 6.81534 3.37652 
21 2 2.4 11.5153 10.0128 10.8121 -0.55418 -2.31627 0.0520837 
95 2 2.4 10.578 14.3036 11.1273 -4.21275 -1.07745 -3.24708 
162 2 2.4 9.12503 9.20437 12.4127 1.08353 0.322441 2.59946 
34 1 -1.2 12.9842 14.0299 7.73127 2.08947 -4.81659 -1.04666 
136 4 1.2 8.11081 12.5405 11.0448 0.113864 -2.88783 -1.85196 
109 2 2.4 14.8471 10.8716 12.8409 0.823443 0.163135 3.00344 
179 1 -1.2 14.4623 15 13.1196 -1.34728 0.803289 -4.01424 
98 1 -1.2 7.87977 7.89915 8.73202 0.445843 -6.24855 1.78691 
123 1 -1.2 11.2257 11.8631 7.815 3.26424 0.434556 1.64517 
60 1 -1.2 9.40604 7.7608 11.5409 3.52567 -1.59507 -2.99849 
52 1 -1.2 14.5011 15.1453 9.56901 -3.72361 -2.50922 2.78471 
